# vtk DataFile Version 3.0
Cell Mesh
ASCII

DATASET POLYDATA
POINTS 160 double
10.000000000000	0.000000000000	0.000000000000
9.969173337331	0.784590957278	0.000000000000
9.876883405951	1.564344650402	0.000000000000
9.723699203977	2.334453638559	0.000000000000
9.510565162952	3.090169943749	0.000000000000
9.238795325113	3.826834323651	0.000000000000
8.910065241884	4.539904997395	0.000000000000
8.526401643541	5.224985647159	0.000000000000
8.090169943749	5.877852522925	0.000000000000
7.604059656000	6.494480483302	0.000000000000
7.071067811865	7.071067811865	0.000000000000
6.494480483302	7.604059656000	0.000000000000
5.877852522925	8.090169943749	0.000000000000
5.224985647159	8.526401643541	0.000000000000
4.539904997395	8.910065241884	0.000000000000
3.826834323651	9.238795325113	0.000000000000
3.090169943749	9.510565162952	0.000000000000
2.334453638559	9.723699203977	0.000000000000
1.564344650402	9.876883405951	0.000000000000
0.784590957278	9.969173337331	0.000000000000
0.000000000000	10.000000000000	0.000000000000
-0.784590957278	9.969173337331	0.000000000000
-1.564344650402	9.876883405951	0.000000000000
-2.334453638559	9.723699203977	0.000000000000
-3.090169943749	9.510565162952	0.000000000000
-3.826834323651	9.238795325113	0.000000000000
-4.539904997395	8.910065241884	0.000000000000
-5.224985647159	8.526401643541	0.000000000000
-5.877852522925	8.090169943749	0.000000000000
-6.494480483302	7.604059656000	0.000000000000
-7.071067811865	7.071067811865	0.000000000000
-7.604059656000	6.494480483302	0.000000000000
-8.090169943749	5.877852522925	0.000000000000
-8.526401643541	5.224985647159	0.000000000000
-8.910065241884	4.539904997395	0.000000000000
-9.238795325113	3.826834323651	0.000000000000
-9.510565162952	3.090169943749	0.000000000000
-9.723699203977	2.334453638559	0.000000000000
-9.876883405951	1.564344650402	0.000000000000
-9.969173337331	0.784590957278	0.000000000000
-10.000000000000	0.000000000000	0.000000000000
-9.969173337331	-0.784590957278	0.000000000000
-9.876883405951	-1.564344650402	0.000000000000
-9.723699203977	-2.334453638559	0.000000000000
-9.510565162952	-3.090169943749	0.000000000000
-9.238795325113	-3.826834323651	0.000000000000
-8.910065241884	-4.539904997395	0.000000000000
-8.526401643541	-5.224985647159	0.000000000000
-8.090169943749	-5.877852522925	0.000000000000
-7.604059656000	-6.494480483302	0.000000000000
-7.071067811865	-7.071067811865	0.000000000000
-6.494480483302	-7.604059656000	0.000000000000
-5.877852522925	-8.090169943749	0.000000000000
-5.224985647159	-8.526401643541	0.000000000000
-4.539904997395	-8.910065241884	0.000000000000
-3.826834323651	-9.238795325113	0.000000000000
-3.090169943749	-9.510565162952	0.000000000000
-2.334453638559	-9.723699203977	0.000000000000
-1.564344650402	-9.876883405951	0.000000000000
-0.784590957278	-9.969173337331	0.000000000000
-0.000000000000	-10.000000000000	0.000000000000
0.784590957278	-9.969173337331	0.000000000000
1.564344650402	-9.876883405951	0.000000000000
2.334453638559	-9.723699203977	0.000000000000
3.090169943749	-9.510565162952	0.000000000000
3.826834323651	-9.238795325113	0.000000000000
4.539904997395	-8.910065241884	0.000000000000
5.224985647159	-8.526401643541	0.000000000000
5.877852522925	-8.090169943749	0.000000000000
6.494480483302	-7.604059656000	0.000000000000
7.071067811865	-7.071067811865	0.000000000000
7.604059656000	-6.494480483302	0.000000000000
8.090169943749	-5.877852522925	0.000000000000
8.526401643541	-5.224985647159	0.000000000000
8.910065241884	-4.539904997395	0.000000000000
9.238795325113	-3.826834323651	0.000000000000
9.510565162952	-3.090169943749	0.000000000000
9.723699203977	-2.334453638559	0.000000000000
9.876883405951	-1.564344650402	0.000000000000
9.969173337331	-0.784590957278	0.000000000000
11.215306539765	0.000000000000	0.000000000000
11.180733492622	0.879942809421	0.000000000000
11.077227505526	1.754460478810	0.000000000000
10.905426727306	2.618161315931	0.000000000000
10.666390366891	3.465720317912	0.000000000000
10.361592162929	4.291912001664	0.000000000000
9.992911297703	5.091642620720	0.000000000000
9.562620811346	5.859981569876	0.000000000000
9.073373587794	6.592191784013	0.000000000000
8.528185998870	7.283758943675	0.000000000000
7.930419307353	7.930419307353	0.000000000000
7.283758943675	8.528185998870	0.000000000000
6.592191784013	9.073373587794	0.000000000000
5.859981569876	9.562620811346	0.000000000000
5.091642620720	9.992911297703	0.000000000000
4.291912001664	10.361592162929	0.000000000000
3.465720317912	10.666390366891	0.000000000000
2.618161315931	10.905426727306	0.000000000000
1.754460478810	11.077227505526	0.000000000000
0.879942809421	11.180733492622	0.000000000000
0.000000000000	11.215306539765	0.000000000000
-0.879942809421	11.180733492622	0.000000000000
-1.754460478810	11.077227505526	0.000000000000
-2.618161315931	10.905426727306	0.000000000000
-3.465720317912	10.666390366891	0.000000000000
-4.291912001664	10.361592162929	0.000000000000
-5.091642620720	9.992911297703	0.000000000000
-5.859981569876	9.562620811346	0.000000000000
-6.592191784013	9.073373587794	0.000000000000
-7.283758943675	8.528185998870	0.000000000000
-7.930419307353	7.930419307353	0.000000000000
-8.528185998870	7.283758943675	0.000000000000
-9.073373587794	6.592191784013	0.000000000000
-9.562620811346	5.859981569876	0.000000000000
-9.992911297703	5.091642620720	0.000000000000
-10.361592162929	4.291912001664	0.000000000000
-10.666390366891	3.465720317912	0.000000000000
-10.905426727306	2.618161315931	0.000000000000
-11.077227505526	1.754460478810	0.000000000000
-11.180733492622	0.879942809421	0.000000000000
-11.215306539765	0.000000000000	0.000000000000
-11.180733492622	-0.879942809421	0.000000000000
-11.077227505526	-1.754460478810	0.000000000000
-10.905426727306	-2.618161315931	0.000000000000
-10.666390366891	-3.465720317912	0.000000000000
-10.361592162929	-4.291912001664	0.000000000000
-9.992911297703	-5.091642620720	0.000000000000
-9.562620811346	-5.859981569876	0.000000000000
-9.073373587794	-6.592191784013	0.000000000000
-8.528185998870	-7.283758943675	0.000000000000
-7.930419307353	-7.930419307353	0.000000000000
-7.283758943675	-8.528185998870	0.000000000000
-6.592191784013	-9.073373587794	0.000000000000
-5.859981569876	-9.562620811346	0.000000000000
-5.091642620720	-9.992911297703	0.000000000000
-4.291912001664	-10.361592162929	0.000000000000
-3.465720317912	-10.666390366891	0.000000000000
-2.618161315931	-10.905426727306	0.000000000000
-1.754460478810	-11.077227505526	0.000000000000
-0.879942809421	-11.180733492622	0.000000000000
-0.000000000000	-11.215306539765	0.000000000000
0.879942809421	-11.180733492622	0.000000000000
1.754460478810	-11.077227505526	0.000000000000
2.618161315931	-10.905426727306	0.000000000000
3.465720317912	-10.666390366891	0.000000000000
4.291912001664	-10.361592162929	0.000000000000
5.091642620720	-9.992911297703	0.000000000000
5.859981569876	-9.562620811346	0.000000000000
6.592191784013	-9.073373587794	0.000000000000
7.283758943675	-8.528185998870	0.000000000000
7.930419307353	-7.930419307353	0.000000000000
8.528185998870	-7.283758943675	0.000000000000
9.073373587794	-6.592191784013	0.000000000000
9.562620811346	-5.859981569876	0.000000000000
9.992911297703	-5.091642620720	0.000000000000
10.361592162929	-4.291912001664	0.000000000000
10.666390366891	-3.465720317912	0.000000000000
10.905426727306	-2.618161315931	0.000000000000
11.077227505526	-1.754460478810	0.000000000000
11.180733492622	-0.879942809421	0.000000000000

POLYGONS	81	481
80 0 1 2 3 4 5 6 7 8 9 10 11 12 13 14 15 16 17 18 19 20 21 22 23 24 25 26 27 28 29 30 31 32 33 34 35 36 37 38 39 40 41 42 43 44 45 46 47 48 49 50 51 52 53 54 55 56 57 58 59 60 61 62 63 64 65 66 67 68 69 70 71 72 73 74 75 76 77 78 79
4 0 80 81 1
4 1 81 82 2
4 2 82 83 3
4 3 83 84 4
4 4 84 85 5
4 5 85 86 6
4 6 86 87 7
4 7 87 88 8
4 8 88 89 9
4 9 89 90 10
4 10 90 91 11
4 11 91 92 12
4 12 92 93 13
4 13 93 94 14
4 14 94 95 15
4 15 95 96 16
4 16 96 97 17
4 17 97 98 18
4 18 98 99 19
4 19 99 100 20
4 20 100 101 21
4 21 101 102 22
4 22 102 103 23
4 23 103 104 24
4 24 104 105 25
4 25 105 106 26
4 26 106 107 27
4 27 107 108 28
4 28 108 109 29
4 29 109 110 30
4 30 110 111 31
4 31 111 112 32
4 32 112 113 33
4 33 113 114 34
4 34 114 115 35
4 35 115 116 36
4 36 116 117 37
4 37 117 118 38
4 38 118 119 39
4 39 119 120 40
4 40 120 121 41
4 41 121 122 42
4 42 122 123 43
4 43 123 124 44
4 44 124 125 45
4 45 125 126 46
4 46 126 127 47
4 47 127 128 48
4 48 128 129 49
4 49 129 130 50
4 50 130 131 51
4 51 131 132 52
4 52 132 133 53
4 53 133 134 54
4 54 134 135 55
4 55 135 136 56
4 56 136 137 57
4 57 137 138 58
4 58 138 139 59
4 59 139 140 60
4 60 140 141 61
4 61 141 142 62
4 62 142 143 63
4 63 143 144 64
4 64 144 145 65
4 65 145 146 66
4 66 146 147 67
4 67 147 148 68
4 68 148 149 69
4 69 149 150 70
4 70 150 151 71
4 71 151 152 72
4 72 152 153 73
4 73 153 154 74
4 74 154 155 75
4 75 155 156 76
4 76 156 157 77
4 77 157 158 78
4 78 158 159 79
4 79 159 80 0

POINT_DATA	160
FIELD Forces 1
Internal_Fmag 1	160	double
0.000000
0.000000
0.000000
0.000000
0.000000
0.000000
0.000000
0.000000
0.000000
0.000000
0.000000
0.000000
0.000000
0.000000
0.000000
0.000000
0.000000
0.000000
0.000000
0.000000
0.000000
0.000000
0.000000
0.000000
0.000000
0.000000
0.000000
0.000000
0.000000
0.000000
0.000000
0.000000
0.000000
0.000000
0.000000
0.000000
0.000000
0.000000
0.000000
0.000000
0.000000
0.000000
0.000000
0.000000
0.000000
0.000000
0.000000
0.000000
0.000000
0.000000
0.000000
0.000000
0.000000
0.000000
0.000000
0.000000
0.000000
0.000000
0.000000
0.000000
0.000000
0.000000
0.000000
0.000000
0.000000
0.000000
0.000000
0.000000
0.000000
0.000000
0.000000
0.000000
0.000000
0.000000
0.000000
0.000000
0.000000
0.000000
0.000000
0.000000
0.000000
0.000000
0.000000
0.000000
0.000000
0.000000
0.000000
0.000000
0.000000
0.000000
0.000000
0.000000
0.000000
0.000000
0.000000
0.000000
0.000000
0.000000
0.000000
0.000000
0.000000
0.000000
0.000000
0.000000
0.000000
0.000000
0.000000
0.000000
0.000000
0.000000
0.000000
0.000000
0.000000
0.000000
0.000000
0.000000
0.000000
0.000000
0.000000
0.000000
0.000000
0.000000
0.000000
0.000000
0.000000
0.000000
0.000000
0.000000
0.000000
0.000000
0.000000
0.000000
0.000000
0.000000
0.000000
0.000000
0.000000
0.000000
0.000000
0.000000
0.000000
0.000000
0.000000
0.000000
0.000000
0.000000
0.000000
0.000000
0.000000
0.000000
0.000000
0.000000
0.000000
0.000000
0.000000
0.000000
0.000000
0.000000
0.000000
0.000000

CELL_DATA	81
FIELD Energy 1
Internal_Energy 1	81	double
0.000000
0.000000
0.000000
0.000000
0.000000
0.000000
0.000000
0.000000
0.000000
0.000000
0.000000
0.000000
0.000000
0.000000
0.000000
0.000000
0.000000
0.000000
0.000000
0.000000
0.000000
0.000000
0.000000
0.000000
0.000000
0.000000
0.000000
0.000000
0.000000
0.000000
0.000000
0.000000
0.000000
0.000000
0.000000
0.000000
0.000000
0.000000
0.000000
0.000000
0.000000
0.000000
0.000000
0.000000
0.000000
0.000000
0.000000
0.000000
0.000000
0.000000
0.000000
0.000000
0.000000
0.000000
0.000000
0.000000
0.000000
0.000000
0.000000
0.000000
0.000000
0.000000
0.000000
0.000000
0.000000
0.000000
0.000000
0.000000
0.000000
0.000000
0.000000
0.000000
0.000000
0.000000
0.000000
0.000000
0.000000
0.000000
0.000000
0.000000
0.000000
