# vtk DataFile Version 3.0
Cell Mesh
ASCII

DATASET POLYDATA
POINTS 1510 double
6.022547956110	39.178380369452	0.000000000000
19.060868210422	24.043715299541	0.000000000000
9.987474636555	2.724763261362	0.000000000000
10.631712434752	2.891136030385	0.000000000000
8.021352480664	36.702525494132	0.000000000000
6.185771537123	34.213941628426	0.000000000000
3.036809643010	39.452609406521	0.000000000000
4.918442868194	34.313630446520	0.000000000000
5.216470772832	33.823665184321	0.000000000000
5.029453678587	33.279532153748	0.000000000000
5.970234357517	33.879850614933	0.000000000000
6.004239176916	38.031490936635	0.000000000000
5.724171428287	38.477479234248	0.000000000000
5.568957531583	39.556654350266	0.000000000000
7.683507267295	36.757844199953	0.000000000000
7.863770187258	37.904053503417	0.000000000000
6.678867018307	38.118017453259	0.000000000000
7.057523190740	37.488871803056	0.000000000000
7.339774247663	37.440316044510	0.000000000000
6.366916987246	39.225611194184	0.000000000000
6.915600876174	38.587387832847	0.000000000000
8.518654818996	37.595720559570	0.000000000000
8.561136382922	37.185552502690	0.000000000000
13.705153309310	38.595543459368	0.000000000000
13.128689256756	37.578033194566	0.000000000000
13.756930232312	37.730443240066	0.000000000000
10.907873972496	38.437187029768	0.000000000000
18.840747889354	24.460820867374	0.000000000000
8.751496502952	24.626054975751	0.000000000000
9.077810715654	25.266139844820	0.000000000000
13.440540604174	21.748915549513	0.000000000000
13.286565081934	21.191328925153	0.000000000000
6.520920753563	4.276091706977	0.000000000000
6.711549842901	5.369845541808	0.000000000000
6.913325007885	4.823341146704	0.000000000000
3.399141214073	6.442603816686	0.000000000000
7.628231657201	4.714639615409	0.000000000000
7.817407541927	4.112811510582	0.000000000000
9.561572892678	3.186853518946	0.000000000000
8.592687581018	4.028340242550	0.000000000000
8.907988702344	4.342907404176	0.000000000000
11.156194870890	2.220272586564	0.000000000000
9.849697507169	2.108393389050	0.000000000000
10.510904756140	1.695273925493	0.000000000000
10.819659200803	3.385361609364	0.000000000000
18.294963891856	27.724861879105	0.000000000000
4.276881943360	35.001513295561	0.000000000000
4.555385181204	34.385536819857	0.000000000000
5.904074186847	34.836241517366	0.000000000000
5.452165293357	34.906278023571	0.000000000000
9.369811253025	36.841310658509	0.000000000000
9.211699785433	36.799071772570	0.000000000000
8.043707771783	35.563994749521	0.000000000000
9.275883416364	35.622651191580	0.000000000000
8.376697062747	36.034669112790	0.000000000000
8.870728012816	36.063910212007	0.000000000000
5.748299284901	32.761018046227	0.000000000000
6.208038197818	33.192455499314	0.000000000000
3.997329290803	33.905598093002	0.000000000000
3.551279601164	34.068131606139	0.000000000000
5.149803256380	39.491480866221	0.000000000000
5.834218672041	40.500000000000	0.000000000000
10.287866837106	38.688534444994	0.000000000000
8.244869746584	39.446891206928	0.000000000000
7.554129135244	39.577512360373	0.000000000000
8.389641501076	38.776994705998	0.000000000000
7.814551227379	38.382004251334	0.000000000000
7.329721299931	38.688280005292	0.000000000000
19.025558691719	39.700480195352	0.000000000000
14.042499791801	38.836021872881	0.000000000000
14.659473772553	38.522912696035	0.000000000000
14.152875508806	36.913389646530	0.000000000000
14.019706551256	37.575051533760	0.000000000000
14.691507906273	37.948364728593	0.000000000000
15.179489803752	37.641252098808	0.000000000000
15.125090393038	36.920891163317	0.000000000000
19.070792280227	40.500000000000	0.000000000000
11.304567299782	38.720004405119	0.000000000000
11.253577970751	39.465798837594	0.000000000000
11.819551050225	39.730442656319	0.000000000000
11.905226712267	40.500000000000	0.000000000000
1.032947397082	33.043378210650	0.000000000000
0.771847602341	32.514326440304	0.000000000000
18.484993276002	34.700945746826	0.000000000000
18.140031850519	34.383436818438	0.000000000000
17.804846963992	9.856210201400	0.000000000000
17.343062004341	9.596931927779	0.000000000000
18.807756014349	26.533294607639	0.000000000000
6.818756661943	28.889992496491	0.000000000000
6.212339365771	28.899530957796	0.000000000000
5.359049616506	29.312099528208	0.000000000000
5.886408847957	29.360405070977	0.000000000000
12.539013531556	21.157083739818	0.000000000000
13.506695208035	20.849542301039	0.000000000000
14.027604759351	21.945346092917	0.000000000000
14.109410348847	22.702427579348	0.000000000000
14.518729222660	20.341046469122	0.000000000000
14.230791179147	20.807253768941	0.000000000000
14.897733777575	21.627006330876	0.000000000000
14.549391486653	21.548446816390	0.000000000000
11.495399221186	7.113822444632	0.000000000000
10.882184543868	6.111407062768	0.000000000000
11.473739367503	6.404566462348	0.000000000000
10.330445192457	6.500458966935	0.000000000000
13.189988885924	7.821998252585	0.000000000000
11.985744214053	7.368548830576	0.000000000000
12.088438773534	9.132625686803	0.000000000000
12.900157854722	8.157365664908	0.000000000000
11.897804601795	8.285460616434	0.000000000000
12.089197634541	8.059320743839	0.000000000000
5.054919622099	13.761177935174	0.000000000000
11.025035066378	8.325665482092	0.000000000000
5.419553335962	12.980034181803	0.000000000000
7.532321100747	3.715651193496	0.000000000000
6.921101037134	3.698121583683	0.000000000000
7.085330839940	1.615183138204	0.000000000000
5.912492241923	1.000000000000	0.000000000000
6.791670210245	2.698284597237	0.000000000000
6.579177208394	3.047896663083	0.000000000000
6.622195051492	2.087548819225	0.000000000000
5.850521564989	1.886036958070	0.000000000000
5.789574219504	1.932933109091	0.000000000000
5.919574174927	3.127558262588	0.000000000000
5.567908858873	2.656206022123	0.000000000000
4.975597544123	3.799284054319	0.000000000000
6.135702944796	4.265463102960	0.000000000000
5.702479041927	3.647162190647	0.000000000000
3.214060540523	5.126551064473	0.000000000000
4.190277731281	7.543442537256	0.000000000000
5.592101327924	4.899006514160	0.000000000000
6.073968491716	5.518778196735	0.000000000000
2.089698414265	5.052394640537	0.000000000000
2.777084437204	5.388489357452	0.000000000000
2.731745085566	6.022011523383	0.000000000000
3.680650091157	7.659972267879	0.000000000000
3.215617198774	7.045200019285	0.000000000000
6.395122039837	22.484447487589	0.000000000000
7.892610419011	18.310755683478	0.000000000000
8.231513899780	18.849085674616	0.000000000000
8.935641777393	18.733314551743	0.000000000000
10.872850733136	22.069734213327	0.000000000000
9.016810603554	19.808111673451	0.000000000000
9.295628909913	19.221680025158	0.000000000000
7.598757714607	22.509341323418	0.000000000000
8.208458249107	23.565351540586	0.000000000000
9.130861331108	18.178862130920	0.000000000000
7.031010636846	21.894028048293	0.000000000000
6.685395879422	21.974728287171	0.000000000000
7.158383931714	20.930607256330	0.000000000000
7.333525058189	21.358623309863	0.000000000000
5.990819870242	21.309035157593	0.000000000000
4.858126252631	19.646513259769	0.000000000000
4.856320736336	19.608785698222	0.000000000000
5.087792641808	18.268654758125	0.000000000000
5.884439903756	17.294924917557	0.000000000000
5.128901677030	17.533378433258	0.000000000000
4.790035972182	17.246519485116	0.000000000000
5.966320556901	16.938503284282	0.000000000000
11.657951347880	15.079432798892	0.000000000000
13.469984859795	13.129569061366	0.000000000000
13.946786600999	13.627680369315	0.000000000000
13.868745409475	14.152801149312	0.000000000000
2.500374988584	7.198185257213	0.000000000000
2.118263471910	6.390115213165	0.000000000000
4.632511641004	3.173714872200	0.000000000000
4.833483678523	2.765152657303	0.000000000000
7.853909425771	2.076732483853	0.000000000000
7.690439832736	2.710608059825	0.000000000000
7.845887033829	2.976633176839	0.000000000000
8.712841558217	3.121264901419	0.000000000000
8.836841679468	3.033408402621	0.000000000000
8.691896894818	5.067139400603	0.000000000000
7.975665498778	5.160524516494	0.000000000000
10.540460819375	1.000000000000	0.000000000000
11.203666324159	4.548856816481	0.000000000000
10.852014298150	5.579493575452	0.000000000000
11.372102566959	5.140455622596	0.000000000000
10.027060085752	5.144181239010	0.000000000000
12.620478058767	6.961072841061	0.000000000000
12.991803804776	7.107292256337	0.000000000000
11.867679093045	5.314178284433	0.000000000000
13.035158901909	5.830079467853	0.000000000000
11.994319794190	6.074933498249	0.000000000000
12.448108582178	6.243033766354	0.000000000000
1.031724907916	20.087099520884	0.000000000000
1.084444807544	21.119596560950	0.000000000000
0.766988538463	20.656665680491	0.000000000000
0.683027995916	19.555077430397	0.000000000000
0.820415407861	18.384989541025	0.000000000000
1.161080266806	18.891607586270	0.000000000000
17.293558601874	32.243955071945	0.000000000000
16.645558856048	32.301244277450	0.000000000000
9.790381604951	27.785289053441	0.000000000000
17.477391790614	34.543394245736	0.000000000000
16.293803718589	34.818072621878	0.000000000000
17.350773937940	33.387572919790	0.000000000000
17.094585103492	34.200160625076	0.000000000000
16.633429729780	34.271635417679	0.000000000000
18.138169509652	26.644181300511	0.000000000000
17.932218801452	27.192863818288	0.000000000000
17.106345064892	27.312531671939	0.000000000000
17.978840705247	28.281278477255	0.000000000000
16.021422703380	26.592144826558	0.000000000000
18.155790584663	24.567832653765	0.000000000000
17.984895691382	25.450777101067	0.000000000000
9.715505311885	25.280331426921	0.000000000000
10.954134781041	25.446236506760	0.000000000000
13.452287708126	27.501299414277	0.000000000000
12.473480901070	27.821863646872	0.000000000000
12.969475513679	27.966622262319	0.000000000000
13.903931139916	26.474188741738	0.000000000000
13.304884467194	26.875698619889	0.000000000000
6.439810171141	36.933146095055	0.000000000000
4.740371250150	35.582584538730	0.000000000000
5.112550892089	35.548372421716	0.000000000000
[...]
POINT_DATA	1510
FIELD Forces 1
Internal_Fmag 1	1510	double
0.000000
0.000000
0.000000
0.000000
0.000000
0.000000
0.000000
0.000000
0.000000
0.000000
0.000000
0.000000
0.000000
0.000000
0.000000
0.000000
0.000000
0.000000
0.000000
0.000000
0.000000
0.000000
0.000000
0.000000
0.000000
0.000000
0.000000
0.000000
0.000000
0.000000
0.000000
0.000000
0.000000
0.000000
0.000000
0.000000
0.000000
0.000000
0.000000
0.000000
0.000000
0.000000
0.000000
0.000000
0.000000
0.000000
0.000000
0.000000
0.000000
0.000000
0.000000
0.000000
0.000000
0.000000
0.000000
0.000000
0.000000
0.000000
0.000000
0.000000
0.000000
0.000000
0.000000
0.000000
0.000000
0.000000
0.000000
0.000000
0.000000
0.000000
0.000000
0.000000
0.000000
0.000000
0.000000
0.000000
0.000000
0.000000
0.000000
0.000000
0.000000
0.000000
0.000000
0.000000
0.000000
0.000000
0.000000
0.000000
0.000000
0.000000
0.000000
0.000000
0.000000
0.000000
0.000000
0.000000
0.000000
0.000000
0.000000
0.000000
0.000000
0.000000
0.000000
0.000000
0.000000
0.000000
0.000000
0.000000
0.000000
0.000000
0.000000
0.000000
0.000000
0.000000
0.000000
0.000000
0.000000
0.000000
0.000000
0.000000
0.000000
0.000000
0.000000
0.000000
0.000000
0.000000
0.000000
0.000000
0.000000
0.000000
0.000000
0.000000
0.000000
0.000000
0.000000
0.000000
0.000000
0.000000
0.000000
0.000000
0.000000
0.000000
0.000000
0.000000
0.000000
0.000000
0.000000
0.000000
0.000000
0.000000
0.000000
0.000000
0.000000
0.000000
0.000000
0.000000
0.000000
0.000000
0.000000
0.000000
0.000000
0.000000
0.000000
0.000000
0.000000
0.000000
0.000000
0.000000
0.000000
0.000000
0.000000
0.000000
0.000000
0.000000
0.000000
0.000000
0.000000
0.000000
0.000000
0.000000
0.000000
0.000000
0.000000
0.000000
0.000000
0.000000
0.000000
0.000000
0.000000
0.000000
0.000000
0.000000
0.000000
0.000000
0.000000
0.000000
0.000000
0.000000
0.000000
0.000000
0.000000
0.000000
0.000000
0.000000
0.000000
0.000000
0.000000
0.000000
0.000000
0.000000
0.000000
0.000000
0.000000
0.000000
0.000000
0.000000
0.000000
0.000000
0.000000
0.000000
0.000000
0.000000
0.000000
0.000000
0.000000
0.000000
0.000000
0.000000
0.000000
0.000000
0.000000
0.000000
0.000000
0.000000
0.000000
0.000000
0.000000
0.000000
0.000000
0.000000
0.000000
0.000000
0.000000
0.000000
0.000000
0.000000
0.000000
0.000000
0.000000
0.000000
0.000000
0.000000
0.000000
0.000000
0.000000
0.000000
0.000000
0.000000
0.000000
0.000000
0.000000
0.000000
0.000000
0.000000
0.000000
0.000000
0.000000
0.000000
0.000000
0.000000
0.000000
0.000000
0.000000
0.000000
0.000000
0.000000
0.000000
0.000000
0.000000
0.000000
0.000000
0.000000
0.000000
0.000000
0.000000
0.000000
0.000000
0.000000
0.000000
0.000000
0.000000
0.000000
0.000000
0.000000
0.000000
0.000000
0.000000
0.000000
0.000000
0.000000
0.000000
0.000000
0.000000
0.000000
0.000000
0.000000
0.000000
0.000000
0.000000
0.000000
0.000000
0.000000
0.000000
0.000000
0.000000
0.000000
0.000000
0.000000
0.000000
0.000000
0.000000
0.000000
0.000000
0.000000
0.000000
0.000000
0.000000
0.000000
0.000000
0.000000
0.000000
0.000000
0.000000
0.000000
0.000000
0.000000
0.000000
0.000000
0.000000
0.000000
0.000000
0.000000
0.000000
0.000000
0.000000
0.000000
0.000000
0.000000
0.000000
0.000000
0.000000
0.000000
0.000000
0.000000
0.000000
0.000000
0.000000
0.000000
0.000000
0.000000
0.000000
0.000000
0.000000
0.000000
0.000000
0.000000
0.000000
0.000000
0.000000
0.000000
0.000000
0.000000
0.000000
0.000000
0.000000
0.000000
0.000000
0.000000
0.000000
0.000000
0.000000
0.000000
0.000000
0.000000
0.000000
0.000000
0.000000
0.000000
0.000000
0.000000
0.000000
0.000000
0.000000
0.000000
0.000000
0.000000
0.000000
0.000000
0.000000
0.000000
0.000000
0.000000
0.000000
0.000000
0.000000
0.000000
0.000000
0.000000
0.000000
0.000000
0.000000
0.000000
0.000000
0.000000
0.000000
0.000000
0.000000
0.000000
0.000000
0.000000
0.000000
0.000000
0.000000
0.000000
0.000000
0.000000
0.000000
0.000000
0.000000
0.000000
0.000000
0.000000
0.000000
0.000000
0.000000
0.000000
0.000000
0.000000
0.000000
0.000000
0.000000
0.000000
0.000000
0.000000
0.000000
0.000000
0.000000
0.000000
0.000000
0.000000
0.000000
0.000000
0.000000
0.000000
0.000000
0.000000
0.000000
0.000000
0.000000
0.000000
0.000000
0.000000
0.000000
0.000000
0.000000
0.000000
0.000000
0.000000
0.000000
0.000000
0.000000
0.000000
0.000000
0.000000
0.000000
0.000000
0.000000
0.000000
0.000000
0.000000
0.000000
0.000000
0.000000
0.000000
0.000000
0.000000
0.000000
0.000000
0.000000
0.000000
0.000000
0.000000
0.000000
0.000000
0.000000
0.000000
0.000000
0.000000
0.000000
0.000000
0.000000
0.000000
0.000000
0.000000
0.000000
0.000000
0.000000
0.000000
0.000000
0.000000
0.000000
0.000000
0.000000
0.000000
0.000000
0.000000
0.000000
0.000000
0.000000
0.000000
0.000000
0.000000
0.000000
0.000000
0.000000
0.000000
0.000000
0.000000
0.000000
0.000000
0.000000
0.000000
0.000000
0.000000
0.000000
0.000000
0.000000
0.000000
0.000000
0.000000
0.000000
0.000000
0.000000
0.000000
0.000000
0.000000
0.000000
0.000000
0.000000
0.000000
0.000000
0.000000
0.000000
0.000000
0.000000
0.000000
0.000000
0.000000
0.000000
0.000000
0.000000
0.000000
0.000000
0.000000
0.000000
0.000000
0.000000
0.000000
0.000000
0.000000
0.000000
0.000000
0.000000
0.000000
0.000000
0.000000
0.000000
0.000000
0.000000
0.000000
0.000000
0.000000
0.000000
0.000000
0.000000
0.000000
0.000000
0.000000
0.000000
0.000000
0.000000
0.000000
0.000000
0.000000
0.000000
0.000000
0.000000
0.000000
0.000000
0.000000
0.000000
0.000000
0.000000
0.000000
0.000000
0.000000
0.000000
0.000000
0.000000
0.000000
0.000000
0.000000
0.000000
0.000000
0.000000
0.000000
0.000000
0.000000
0.000000
0.000000
0.000000
0.000000
0.000000
0.000000
0.000000
0.000000
0.000000
0.000000
0.000000
0.000000
0.000000
0.000000
0.000000
0.000000
0.000000
0.000000
0.000000
0.000000
0.000000
0.000000
0.000000
0.000000
0.000000
0.000000
0.000000
0.000000
0.000000
0.000000
0.000000
0.000000
0.000000
0.000000
0.000000
0.000000
0.000000
0.000000
0.000000
0.000000
0.000000
0.000000
0.000000
0.000000
0.000000
0.000000
0.000000
0.000000
0.000000
0.000000
0.000000
0.000000
0.000000
0.000000
0.000000
0.000000
0.000000
0.000000
0.000000
0.000000
0.000000
0.000000
0.000000
0.000000
0.000000
0.000000
0.000000
0.000000
0.000000
0.000000
0.000000
0.000000
0.000000
0.000000
0.000000
0.000000
0.000000
0.000000
0.000000
0.000000
0.000000
0.000000
0.000000
0.000000
0.000000
0.000000
0.000000
0.000000
0.000000
0.000000
0.000000
0.000000
0.000000
0.000000
0.000000
0.000000
0.000000
0.000000
0.000000
0.000000
0.000000
0.000000
0.000000
0.000000
0.000000
0.000000
0.000000
0.000000
0.000000
0.000000
0.000000
0.000000
0.000000
0.000000
0.000000
0.000000
0.000000
0.000000
0.000000
0.000000
0.000000
0.000000
0.000000
0.000000
0.000000
0.000000
0.000000
0.000000
0.000000
0.000000
0.000000
0.000000
0.000000
0.000000
0.000000
0.000000
0.000000
0.000000
0.000000
0.000000
0.000000
0.000000
0.000000
0.000000
0.000000
0.000000
0.000000
0.000000
0.000000
0.000000
0.000000
0.000000
0.000000
0.000000
0.000000
0.000000
0.000000
0.000000
0.000000
0.000000
0.000000
0.000000
0.000000
0.000000
0.000000
0.000000
0.000000
0.000000
0.000000
0.000000
0.000000
0.000000
0.000000
0.000000
0.000000
0.000000
0.000000
0.000000
0.000000
0.000000
0.000000
0.000000
0.000000
0.000000
0.000000
0.000000
0.000000
0.000000
0.000000
0.000000
0.000000
0.000000
0.000000
0.000000
0.000000
0.000000
0.000000
0.000000
0.000000
0.000000
0.000000
0.000000
0.000000
0.000000
0.000000
0.000000
0.000000
0.000000
0.000000
0.000000
0.000000
0.000000
0.000000
0.000000
0.000000
0.000000
0.000000
0.000000
0.000000
0.000000
0.000000
0.000000
0.000000
0.000000
0.000000
0.000000
0.000000
0.000000
0.000000
0.000000
0.000000
0.000000
0.000000
0.000000
0.000000
0.000000
0.000000
0.000000
0.000000
0.000000
0.000000
0.000000
0.000000
0.000000
0.000000
0.000000
0.000000
0.000000
0.000000
0.000000
0.000000
0.000000
0.000000
0.000000
0.000000
0.000000
0.000000
0.000000
0.000000
0.000000
0.000000
0.000000
0.000000
0.000000
0.000000
0.000000
0.000000
0.000000
0.000000
0.000000
0.000000
0.000000
0.000000
0.000000
0.000000
0.000000
0.000000
0.000000
0.000000
0.000000
0.000000
0.000000
0.000000
0.000000
0.000000
0.000000
0.000000
0.000000
0.000000
0.000000
0.000000
0.000000
0.000000
0.000000
0.000000
0.000000
0.000000
0.000000
0.000000
0.000000
0.000000
0.000000
0.000000
0.000000
0.000000
0.000000
0.000000
0.000000
0.000000
0.000000
0.000000
0.000000
0.000000
0.000000
0.000000
0.000000
0.000000
0.000000
0.000000
0.000000
0.000000
0.000000
0.000000
0.000000
0.000000
0.000000
0.000000
0.000000
0.000000
0.000000
0.000000
0.000000
0.000000
0.000000
0.000000
0.000000
0.000000
0.000000
0.000000
0.000000
0.000000
0.000000
0.000000
0.000000
0.000000
0.000000
0.000000
0.000000
0.000000
0.000000
0.000000
0.000000
0.000000
0.000000
0.000000
0.000000
0.000000
0.000000
0.000000
0.000000
0.000000
0.000000
0.000000
0.000000
0.000000
0.000000
0.000000
0.000000
0.000000
0.000000
0.000000
0.000000
0.000000
0.000000
0.000000
0.000000
0.000000
0.000000
0.000000
0.000000
0.000000
0.000000
0.000000
0.000000
0.000000
0.000000
0.000000
0.000000
0.000000
0.000000
0.000000
0.000000
0.000000
0.000000
0.000000
0.000000
0.000000
0.000000
0.000000
0.000000
0.000000
0.000000
0.000000
0.000000
0.000000
0.000000
0.000000
0.000000
0.000000
0.000000
0.000000
0.000000
0.000000
0.000000
0.000000
0.000000
0.000000
0.000000
0.000000
0.000000
0.000000
0.000000
0.000000
0.000000
0.000000
0.000000
0.000000
0.000000
0.000000
0.000000
0.000000
0.000000
0.000000
0.000000
0.000000
0.000000
0.000000
0.000000
0.000000
0.000000
0.000000
0.000000
0.000000
0.000000
0.000000
0.000000
0.000000
0.000000
0.000000
0.000000
0.000000
0.000000
0.000000
0.000000
0.000000
0.000000
0.000000
0.000000
0.000000
0.000000
0.000000
0.000000
0.000000
0.000000
0.000000
0.000000
0.000000
0.000000
0.000000
0.000000
0.000000
0.000000
0.000000
0.000000
0.000000
0.000000
0.000000
0.000000
0.000000
0.000000
0.000000
0.000000
0.000000
0.000000
0.000000
0.000000
0.000000
0.000000
0.000000
0.000000
0.000000
0.000000
0.000000
0.000000
0.000000
0.000000
0.000000
0.000000
0.000000
0.000000
0.000000
0.000000
0.000000
0.000000
0.000000
0.000000
0.000000
0.000000
0.000000
0.000000
0.000000
0.000000
0.000000
0.000000
0.000000
0.000000
0.000000
0.000000
0.000000
0.000000
0.000000
0.000000
0.000000
0.000000
0.000000
0.000000
0.000000
0.000000
0.000000
0.000000
0.000000
0.000000
0.000000
0.000000
0.000000
0.000000
0.000000
0.000000
0.000000
0.000000
0.000000
0.000000
0.000000
0.000000
0.000000
0.000000
0.000000
0.000000
0.000000
0.000000
0.000000
0.000000
0.000000
0.000000
0.000000
0.000000
0.000000
0.000000
0.000000
0.000000
0.000000
0.000000
0.000000
0.000000
0.000000
0.000000
0.000000
0.000000
0.000000
0.000000
0.000000
0.000000
0.000000
0.000000
0.000000
0.000000
0.000000
0.000000
0.000000
0.000000
0.000000
0.000000
0.000000
0.000000
0.000000
0.000000
0.000000
0.000000
0.000000
0.000000
0.000000
0.000000
0.000000
0.000000
0.000000
0.000000
0.000000
0.000000
0.000000
0.000000
0.000000
0.000000
0.000000
0.000000
0.000000
0.000000
0.000000
0.000000
0.000000
0.000000
0.000000
0.000000
0.000000
0.000000
0.000000
0.000000
0.000000
0.000000
0.000000
0.000000
0.000000
0.000000
0.000000
0.000000
0.000000
0.000000
0.000000
0.000000
0.000000
0.000000
0.000000
0.000000
0.000000
0.000000
0.000000
0.000000
0.000000
0.000000
0.000000
0.000000
0.000000
0.000000
0.000000
0.000000
0.000000
0.000000
0.000000
0.000000
0.000000
0.000000
0.000000
0.000000
0.000000
0.000000
0.000000
0.000000
0.000000
0.000000
0.000000
0.000000
0.000000
0.000000
0.000000
0.000000
0.000000
0.000000
0.000000
0.000000
0.000000
0.000000
0.000000
0.000000
0.000000
0.000000
0.000000
0.000000
0.000000
0.000000
0.000000
0.000000
0.000000
0.000000
0.000000
0.000000
0.000000
0.000000
0.000000
0.000000
0.000000
0.000000
0.000000
0.000000
0.000000
0.000000
0.000000
0.000000
0.000000
0.000000
0.000000
0.000000
0.000000
0.000000
0.000000
0.000000
0.000000
0.000000
0.000000
0.000000
0.000000
0.000000
0.000000
0.000000
0.000000
0.000000
0.000000
0.000000
0.000000
0.000000
0.000000
0.000000
0.000000
0.000000
0.000000
0.000000
0.000000
0.000000
0.000000
0.000000
0.000000
0.000000
0.000000
0.000000
0.000000
0.000000
0.000000
0.000000
0.000000
0.000000
0.000000
0.000000
0.000000
0.000000
0.000000
0.000000
0.000000
0.000000
0.000000
0.000000
0.000000
0.000000
0.000000
0.000000
0.000000
0.000000
0.000000
0.000000
0.000000
0.000000
0.000000
0.000000
0.000000
0.000000
0.000000
0.000000
0.000000
0.000000
0.000000
0.000000
0.000000
0.000000
0.000000
0.000000
0.000000
0.000000
0.000000
0.000000
0.000000
0.000000
0.000000
0.000000
0.000000
0.000000
0.000000
0.000000
0.000000
0.000000
0.000000
0.000000
0.000000
0.000000
0.000000
0.000000
0.000000
0.000000
0.000000
0.000000
0.000000
0.000000
0.000000
0.000000
0.000000
0.000000
0.000000
0.000000
0.000000
0.000000
0.000000
0.000000
0.000000
0.000000
0.000000
0.000000
0.000000
0.000000
0.000000
0.000000
0.000000
0.000000
0.000000
0.000000
0.000000
0.000000
0.000000
0.000000
0.000000
0.000000
0.000000
0.000000
0.000000
0.000000
0.000000
0.000000
0.000000
0.000000
0.000000
0.000000
0.000000
0.000000
0.000000
0.000000
0.000000
0.000000
0.000000
0.000000
0.000000
0.000000
0.000000
0.000000
0.000000
0.000000
0.000000
0.000000
0.000000
0.000000
0.000000
0.000000
0.000000
0.000000
0.000000
0.000000
0.000000
0.000000
0.000000
0.000000
0.000000
0.000000
0.000000
0.000000
0.000000
0.000000
0.000000
0.000000
0.000000
0.000000
0.000000
0.000000
0.000000
0.000000
0.000000
0.000000
0.000000
0.000000
0.000000
0.000000
0.000000
0.000000
0.000000
0.000000
0.000000
0.000000
0.000000
0.000000

CELL_DATA	719
FIELD Energy 1
Internal_Energy 1	719	double
14.024685
15.961405
16.528560
13.773997
15.460561
14.209378
13.947107
14.923852
14.831404
13.968282
14.597303
14.575345
14.359545
16.681769
14.946553
14.545910
13.840381
14.348267
14.550094
13.580940
14.433564
14.510610
14.307598
14.982889
13.653174
15.571600
14.008391
15.671006
14.236643
15.561320
14.430964
15.689492
15.788304
14.928469
15.019350
15.101151
14.239491
14.232964
16.735208
15.600975
14.857837
14.153551
14.138817
13.892161
15.006393
15.447512
13.787733
13.787674
14.597474
14.266306
14.032526
14.142417
14.554193
13.723881
15.262500
14.698244
15.044204
13.933194
14.473276
14.392181
13.958546
14.129245
14.227232
16.485400
15.191278
13.705787
13.893552
14.280315
14.650757
14.489540
14.101622
14.033866
14.230179
13.566768
15.266554
15.170806
14.135827
13.978468
13.524922
14.040636
14.560119
13.843132
13.764442
13.582561
16.721822
14.020531
14.863377
15.033236
14.529052
14.741364
16.231871
14.421099
14.342114
13.506994
14.215603
16.251582
14.361611
13.814814
13.548130
16.785269
18.263687
14.710743
16.425431
14.199270
16.489948
14.308934
14.628818
15.117994
17.894411
14.721941
14.678832
14.613846
13.668375
14.515149
13.573023
14.964738
15.668669
13.937910
14.299517
14.610606
13.928619
14.649103
13.762697
13.864985
14.637488
14.168948
16.240445
14.450399
16.749306
13.813869
13.507236
13.906979
14.597214
13.710021
14.950126
21.263486
13.562032
13.794007
14.971637
14.313576
13.873096
14.416418
15.281992
13.713329
15.480544
14.216718
13.868094
13.854588
15.896592
14.295558
17.111804
16.694524
15.101691
15.890580
15.919631
14.082169
14.638166
14.182336
16.037496
16.131667
17.674944
15.561921
15.265983
14.585481
14.413982
14.765893
13.564915
13.996991
13.862764
13.914004
13.631874
14.185211
14.539527
14.609215
14.264581
13.634431
14.588388
14.073972
14.961877
15.308638
13.789591
14.179630
14.659148
14.780644
15.159397
14.191477
14.881471
14.971743
14.851507
14.696318
13.848020
13.840432
13.844417
13.463803
13.898456
16.213672
15.857824
15.232947
13.666452
15.917014
17.207915
14.871897
13.803551
13.734020
13.583707
13.933409
14.072324
13.595578
15.185836
18.242407
13.752369
17.583622
14.235215
13.842221
14.170011
15.208420
15.533342
14.818527
14.275780
14.300884
13.747437
14.156356
15.146587
14.656626
13.497024
17.488567
16.925526
13.991123
14.956519
14.782568
15.566581
13.658924
14.547893
14.355380
14.356352
15.896307
14.921873
14.285971
14.446436
15.056664
17.316482
14.290647
17.114371
13.596799
13.676543
13.825686
14.048090
14.136700
15.137533
14.153674
13.944535
14.529289
14.732734
14.652712
15.468036
15.346949
14.319024
15.864708
14.686796
13.605222
13.879917
13.758540
14.195705
13.770118
15.825240
14.844594
16.739199
15.778792
15.113253
13.695294
14.715879
14.258766
14.043710
14.531883
20.600759
14.528665
14.093783
15.567853
14.200365
15.746216
13.471793
13.934927
14.288549
17.838100
13.806757
14.573611
14.299094
14.035600
15.919367
13.495955
13.902656
15.869439
14.426011
14.593113
14.241101
14.493539
15.119421
15.555194
14.197015
14.537278
14.955153
13.638073
15.619483
14.878694
16.080110
16.345295
15.806662
14.904569
19.048496
13.600295
13.753214
15.192315
13.913739
15.436592
14.393557
14.113210
14.418333
14.257315
13.967824
14.130745
15.463264
14.531646
15.257725
14.446876
14.567920
14.182681
14.762962
14.920839
14.808314
14.212234
14.177698
13.872208
14.753300
13.838249
14.322613
14.712711
14.753867
13.532308
13.864029
14.163864
14.756154
13.803026
14.498700
15.134983
14.256707
13.909441
16.672149
15.054034
13.822047
14.940538
13.485098
14.471375
13.661573
13.493132
14.606223
13.501561
13.914801
16.268210
14.363415
14.589990
14.521091
14.022687
16.275959
14.560205
13.725449
15.843435
13.920798
13.785724
13.442883
14.131155
14.771489
13.527055
13.943835
14.267027
14.694590
15.837909
14.579306
14.858767
13.818355
16.413814
19.326585
14.539900
14.294620
15.334548
13.572096
14.691467
13.686337
16.323288
13.579764
13.930193
14.383159
14.798381
15.683908
15.769013
14.341470
13.851314
14.851227
14.309432
14.218486
14.948975
14.244199
15.379163
18.495229
16.807747
14.019520
15.036001
14.788460
13.907124
13.824616
14.406478
13.697526
14.834909
13.965522
14.004136
13.674517
16.111181
14.333170
13.710320
14.049589
15.449752
13.683589
13.894914
14.780513
13.655203
13.852412
13.621261
14.028426
14.700012
14.951679
14.108171
14.619316
14.730736
14.157995
14.725390
14.250524
14.540707
14.147661
14.339352
18.671645
13.817313
14.142127
13.621766
13.609378
13.662833
13.531209
22.812347
14.467005
13.803489
14.354760
15.112766
15.049726
14.346544
13.456740
17.209714
18.670440
14.282675
14.333484
15.774051
14.025866
14.223206
16.702852
15.716076
16.098512
13.820151
16.176434
14.261209
14.049215
15.349904
13.982338
15.023756
14.211656
16.132993
13.765625
14.366631
15.884947
14.338648
14.215008
15.898799
14.794886
14.909034
14.458249
14.157412
13.649421
14.301900
13.883333
14.032334
14.654270
14.739506
14.751910
14.100773
14.685523
16.593527
13.568350
14.403082
14.167631
13.623313
13.878913
14.853953
13.795625
13.678591
14.044946
17.165046
14.298588
13.878188
13.601272
16.722907
15.653836
14.427965
14.409002
14.334950
15.902089
15.119603
16.653764
17.151409
14.849113
14.350023
14.110293
14.510663
14.147033
14.384813
13.757357
15.658135
19.419319
16.118155
14.479268
13.698905
13.963394
14.117770
13.498518
14.208008
14.577007
14.770314
13.557734
15.445497
16.433806
14.446318
19.091918
14.109741
14.541971
14.735553
14.328414
14.310188
13.437545
14.518259
13.921891
17.462643
14.899098
14.331387
14.124323
16.437309
13.880892
14.204616
13.895637
13.534354
14.286186
14.450748
13.875786
13.582926
16.017055
14.930678
14.559370
13.849204
15.917207
13.533524
15.139724
13.522424
14.266702
15.147584
15.926585
14.122782
14.329164
15.480166
13.696960
14.169747
15.994780
15.082709
18.190133
14.093001
14.293624
14.150908
14.313239
16.721844
15.179758
14.232819
19.460787
14.334256
14.532221
14.986381
15.243217
14.308126
14.999415
14.353194
13.725290
14.477963
15.193295
14.663882
13.924118
15.554077
14.354631
14.183479
14.410210
14.398577
15.244923
13.819626
13.783823
15.127143
13.569793
14.750824
15.951559
16.908413
14.551888
15.300892
14.256503
14.296618
24.304737
14.953839
15.415693
14.670606
14.197969
13.693276
13.499425
14.259047
13.773042
13.578470
15.170203
14.287619
14.958535
19.656134
14.434493